<?xml version="1.0"?>
<VTKFile type="UnstructuredGrid"  version="0.1"  >
<UnstructuredGrid>
<Piece  NumberOfPoints="1774" NumberOfCells="3388">
<Points>
<DataArray  type="Float64"  NumberOfComponents="3"  format="ascii">0 0 0  0 -5 0  5 0 0  0 5 0  0 -0.001038817295892149 0  0 -0.002185332814292895 0  0 -0.003450712053880232 0  0 -0.004847278178233027 0  0 -0.006388631762880794 0  0 -0.008089783699529276 0  0 -0.009967300706904787 0  0 -0.01203946772190888 0  0 -0.01432646388633206 0  0 -0.01685056198091069 0  0 -0.01963634342829354 0  0 -0.02271093829350938 0  0 -0.02610428812611203 0  0 -0.02984943992828421 0  0 -0.03398286737623157 0  0 -0.0385448222131651 0  0 -0.0435797334772345 0  0 -0.04913663387601421 0  0 -0.05526964028374207 0  0 -0.06203847965437697 0  0 -0.06950907119724042 0  0 -0.07775416975662783 0  0 -0.08685406832271539 0  0 -0.09689738963338682 0  0 -0.1079819429786227 0  0 -0.120215675066971 0  0 -0.1337177264034194 0  0 -0.1486195880591765 0  0 -0.1650663894927921 0  0 -0.1832182910487295 0  0 -0.2032520695603457 0  0 -0.2253628329354281 0  0 -0.2497659069616366 0  0 -0.2766989430291033 0  0 -0.3064242340733965 0  0 -0.3392312658252916 0  0 -0.3754395313653531 0  0 -0.4154016472839779 0  0 -0.4595067948258437 0  0 -0.508184497477651 0  0 -0.5619088103543565 0  0 -0.6212029326827117 0  0 -0.6866443122217997 0  0 -0.7588702729037444 0  0 -0.838584162944459 0  0 -0.9265623162264592 0  0 -1.023661515650797 0  0 -1.130827369872419 0  0 -1.249103524093622 0  0 -1.379641872388004 0  0 -1.523713610958915 0  0 -1.682721812509942 0  0 -1.858215075495561 0  0 -2.051902382993501 0  0 -2.265670027431066 0  0 -2.501599828903621 0  0 -2.761989435592044 0  0 -3.049374557596986 0  0 -3.366554102697728 0  0 -3.716616915779184 0  0 -4.102972080212878 0  0 -4.52938225482715 0  0.4900857016459312 -4.975923633361169 0  0.9754516100779952 -4.903926402016678 0  1.451423386268628 -4.784701678662161 0  1.913417161820622 -4.619397662558433 0  2.356983684123998 -4.409606321744977 0  2.777851165091827 -4.157348061516859 0  3.171966420811519 -3.865052266819191 0  3.535533905926123 -3.535533905939352 0  3.865052266808592 -3.171966420824433 0  4.157348061509024 -2.77785116510355 0  4.409606321738986 -2.356983684135207 0  4.619397662554714 -1.913417161829599 0  4.784701678660245 -1.451423386274946 0  4.903926402015853 -0.9754516100821464 0  4.97592363336095 -0.4900857016481519 0  4.975923633361169 0.4900857016459312 0  4.903926402016678 0.9754516100779952 0  4.784701678662161 1.451423386268628 0  4.619397662558433 1.913417161820622 0  4.409606321744977 2.356983684123998 0  4.157348061516859 2.777851165091827 0  3.865052266819191 3.171966420811519 0  3.535533905939352 3.535533905926123 0  3.171966420824433 3.865052266808592 0  2.77785116510355 4.157348061509024 0  2.356983684135207 4.409606321738986 0  1.913417161829599 4.619397662554714 0  1.451423386274946 4.784701678660245 0  0.9754516100821464 4.903926402015853 0  0.4900857016481519 4.97592363336095 0  0 4.529382254828173 0  0 4.10297208021476 0  0 3.716616915781759 0  0 3.366554102700839 0  0 3.049374557600529 0  0 2.761989435595908 0  0 2.501599828907712 0  0 2.265670027435296 0  0 2.051902382997817 0  0 1.858215075499305 0  0 1.682721812513001 0  0 1.523713610961374 0  0 1.379641872389942 0  0 1.24910352409512 0  0 1.130827369873542 0  0 1.023661515651599 0  0 0.92656231622699 0  0 0.8385841629447697 0  0 0.7588702729038683 0  0 0.6866443122217722 0  0 0.621202932682559 0  0 0.5619088103542262 0  0 0.50818449747754 0  0 0.4595067948257521 0  0 0.4154016472838986 0  0 0.3754395313652861 0  0 0.3392312658252354 0  0 0.3064242340733516 0  0 0.2766989430290678 0  0 0.2497659069616089 0  0 0.2253628329353941 0  0 0.2032520695603059 0  0 0.1832182910486866 0  0 0.165066389492746 0  0 0.148619588059133 0  0 0.1337177264033818 0  0 0.1202156750669383 0  0 0.1079819429785953 0  0 0.09689738963336403 0  0 0.08685406832269571 0  0 0.07775416975661109 0  0 0.06950907119722682 0  0 0.06203847965436537 0  0 0.05526964028373271 0  0 0.04913663387600664 0  0 0.04357973347722854 0  0 0.03854482221315969 0  0 0.03398286737622769 0  0 0.02984943992828093 0  0 0.02610428812610976 0  0 0.02271093829350779 0  0 0.01963634342829224 0  0 0.01685056198090962 0  0 0.01432646388633074 0  0 0.012039467721908 0  0 0.009967300706904325 0  0 0.008089783699528397 0  0 0.006388631762880514 0  0 0.004847278178232273 0  0 0.003450712053879812 0  0 0.002185332814292451 0  0 0.001038817295891725 0  2.5 0.0005194086479458626 0  1.242288634716485 0.01291787751631832 0  0.6155742288001738 0.004672169115843228 0  0.3078324299352698 0.001006641879850029 0  0.1553492776135219 0.00210041895054324 0  0.07812844984970226 -0.0005194086479460746 0  1.875007965629405 -1.770468444002752 0  0.9348338685875516 -0.8825732395854587 0  0.9373720617963747 0.8905026426718221 0  0.4680085539490918 0.447393029607023 0  0.4654982408078385 -0.4415139632100549 0  0.22541498515442 -0.2143074512478869 0  0.220091403955021 0.2135063189874009 0  0.03936054219688785 0.0009260331208295383 0  0.1067083053141701 0.1024396663059797 0  0.1060504182518516 -0.1017607485522774 0  0.054543846734092 -0.05247300488244131 0  0.05359977663005625 0.05220313707986968 0  0.01954506021371764 -0.0005194086479460745 0  0.02857172152066078 -0.02848992269958182 0  0.02574655058163709 0.02442919913779157 0  1.673557096797038 2.345837066324312 0  0.01625303172419443 -0.01527092407471581 0  0.0145422129761328 0.01318296580411937 0  0.009793234981180858 0.0005194086479458625 0  0.4693790854898717 -0.1890543416708917 0  0.8164339537256003 -0.3343112055452112 0  1.855307207663654 -0.718972303422118 0  3.234925042609072 -1.238224421195104 0  0.8906879122973018 -1.742798053342286 0  0.4681215359135393 0.1892447917431177 0  0.1114895516576912 -0.2143074512478869 0  0.4308576490367449 -0.8832556176216166 0  0.1098460669979124 0.2140361620124727 0  0.2162137572010904 -0.4328846985116014 0  0.93810824554644 0.3657777684215838 0  0.2186204177698247 0.4348686690984409 0  1.874400333958752 0.7216703331241906 0  0.4433489270315619 0.8825732395858794 0  0.8571225659807024 1.773369634675615 0  1.393285753886389 -3.090257299076237 0  0.05016249290537655 -0.1024396663060048 0  0.05005550797158495 0.1024396663059797 0  3.26691153606038 1.298018395692683 0  0.007866860752677089 -0.007361940272838614 0  0.2255741157929186 -0.0929549676882475 0  0.05792611926722667 -0.02260117571613218 0  0.1007660129654884 -0.04167735900794351 0  0.221504528945892 0.09323091837135535 0  0.1096016109633841 0.04619032755920385 0  0.006945486047209358 0.00731565839143582 0  0.02453489072056571 -0.05169665906466499 0  0.02240701013458831 0.04629577672743414 0  1.302273819619466 -0.4954028288571274 0  0.05341579774047416 0.02472544597081924 0  1.217865779665392 3.524104822416859 0  0.02991060800063671 -0.01134031283968877 0  0.005111796556850646 -0.001612075055092522 0  0.02750448582290888 0.07363162047691893 0  0.4193545739759423 -1.304688777229694 0  0.05667871795518336 -0.1581580610602547 0  0.05675762878281115 0.1581750781648655 0  0.2141297644065873 -0.6539236224522555 0  1.512032416836717 1.363028997370814 0  0.1073531091930922 -0.3228277499493441 0  0.2142906401734684 0.6625137471139139 0  0.4172130857476121 1.305304646174148 0  0.1075655708992398 0.3265694741019232 0  0.01188228188938244 0.02400839325356067 0  0.01259528417511201 -0.02797686402719812 0  3.716584234620138 -0.07838255789361093 0  0.02865002034275453 0.01097114596041851 0  0.8339055107110612 2.679743061926194 0  0.004436398352598567 0.002818022434086132 0  0.1643814662891549 -0.06469499570302298 0  2.572652593184925 -2.777764931774128 0  0.9261875952147826 -0.02221239369826909 0  2.362357787995782 1.711850650077229 0  0.3574357300723681 -0.1249776714359419 0  0.4639202401813623 -0.01884080854377472 0  1.858096465989144 -0.07641461913382827 0  1.43361124487658 0.4717526099897938 0  0.3530353760478789 0.1249316195974285 0  0.2315664694739912 -0.01679601242615731 0  0.7181404859698615 0.2375083854394679 0  0.1166686141814757 -0.005107895546474089 0  0.1709727603483649 0.06221667588979067 0  2.645544813302536 2.781366113843803 0  0.659715408584733 -2.400938904279586 0  0.1653607401895466 -0.1524354413473032 0  1.442136461550248 -1.067083010686962 0  1.400873165644729 -2.365230042371901 0  2.662234830022414 0.7731882572650394 0  0.02936886764630356 -0.08138420012931011 0  0.7313361301896185 -0.6346069337399456 0  0.08353788171325728 0.0292866075236194 0  0.3530063311348479 -0.2667766306802021 0  0.006110757538345502 -0.01318296580412047 0  0.01216256285518541 -0.03998232017511569 0  0.05841209037117009 0.004455392242829917 0  2.63654369126751 -0.7485671105601891 0  0.01126504676867255 0.0353972721650849 0  0.006161051614467879 0.01312489416442074 0  1.117928747500789 -0.2646092802896922 0  0.01383859373829079 -0.004461944963162022 0  0.004239142811915096 -0.005802025272532266 0  0.04031241750098976 0.03854335706068376 0  0.3521938629650883 0.2615653816718868 0  0.9363392873979903 -3.975174211259556 0  0.01450551068358637 0.006043054268338108 0  0.6713238164083218 -0.2148650205403499 0  0.1709748129568599 0.1265451398902474 0  0.7334997099830867 0.6223200851934561 0  0.5177724319918851 2.161797442549017 0  0.04591076345713582 -0.01400146840886327 0  0.2611520624375941 -1.077244442761608 0  0.4328241883878335 -1.735155911086498 0  0.8731937172889875 -1.324459129876256 0  0.1308585577699191 -0.5350466539160038 0  2.732773231848434 -1.910882156472274 0  0.06566636002819523 -0.26323242499537 0  0.2611757965888029 1.077244442762571 0  0.06563770729086664 0.2632324249953382 0  0.1308517041551989 0.5350466539158831 0  0.04290553154307412 0.01531001401786612 0  1.330181896737689 -1.541706537593771 0  0.8730996604879009 1.324553600172356 0  0.02234588866934689 -0.009157959583617493 0  0.2879408807596964 -0.06594399599085045 0  0.008078433577865638 -0.02158040522630844 0  0.4372894924183192 -0.6594263722632353 0  0.2022413448990048 0.022151
[...]
<PointData  Scalars="f"> 
<DataArray  type="Float64"  Name="f"  format="ascii">2.5706302690411797e-01  0.0000000000000000e+00  0.0000000000000000e+00  0.0000000000000000e+00  2.5706286965672864e-01  2.5706292127523978e-01  2.5706180276576784e-01  2.5705967718894246e-01  2.5705625449370156e-01  2.5705114253736844e-01  2.5704386065049517e-01  2.5703384066781859e-01  2.5702036710288434e-01  2.5700261139014302e-01  2.5697959552111377e-01  2.5695007149245908e-01  2.5691266181902489e-01  2.5686557257457732e-01  2.5680695346300658e-01  2.5673409515049389e-01  2.5664383118102319e-01  2.5653313588645743e-01  2.5639623173105935e-01  2.5622780340315332e-01  2.5601727092463650e-01  2.5576219595591454e-01  2.5544273577405818e-01  2.5504434471322229e-01  2.5455135416524605e-01  2.5394490293915345e-01  2.5318357315967494e-01  2.5224794378486814e-01  2.5107523992838632e-01  2.4963130388090188e-01  2.4784360217900278e-01  2.4564372705734508e-01  2.4293957871611338e-01  2.3963314383702947e-01  2.3559143844458469e-01  2.3066377128290735e-01  2.2473018462474098e-01  2.1761841310045360e-01  2.0914229221453395e-01  1.9916286918301390e-01  1.8755477429573619e-01  1.7415123964503129e-01  1.5903315017847858e-01  1.4221870062056988e-01  1.2403772402425300e-01  1.0478911684036413e-01  8.5288002984288999e-02  6.6380940973694888e-02  4.8735764416887255e-02  3.3488330070549931e-02  2.1169279084904229e-02  1.2043968919943830e-02  6.0958350810991031e-03  2.6773428262969316e-03  9.9656721983190340e-04  3.1511622261778938e-04  7.9811987238918069e-05  1.6467057062397000e-05  2.6925590639875211e-06  3.2769917509842933e-07  2.2147341340879230e-08  2.5460790365642994e-09  0.0000000000000000e+00  0.0000000000000000e+00  0.0000000000000000e+00  0.0000000000000000e+00  0.0000000000000000e+00  0.0000000000000000e+00  0.0000000000000000e+00  0.0000000000000000e+00  0.0000000000000000e+00  0.0000000000000000e+00  0.0000000000000000e+00  0.0000000000000000e+00  0.0000000000000000e+00  0.0000000000000000e+00  0.0000000000000000e+00  0.0000000000000000e+00  0.0000000000000000e+00  0.0000000000000000e+00  0.0000000000000000e+00  0.0000000000000000e+00  0.0000000000000000e+00  0.0000000000000000e+00  0.0000000000000000e+00  0.0000000000000000e+00  0.0000000000000000e+00  0.0000000000000000e+00  0.0000000000000000e+00  0.0000000000000000e+00  0.0000000000000000e+00  0.0000000000000000e+00  1.3546125842170229e-10  3.2887471716410058e-09  6.3409485279882961e-08  5.8330129954405597e-07  4.4064079339140228e-06  2.5628017948784812e-05  1.2137631930368646e-04  4.4365640710084550e-04  1.3378436728874003e-03  3.3672929333616541e-03  7.2346000681736463e-03  1.3572134719353217e-02  2.2776927903426041e-02  3.4888949017104258e-02  4.9685153097217556e-02  6.6304947941545872e-02  8.4167320389541694e-02  1.0250601275686370e-01  1.2047692211470751e-01  1.3766675663569924e-01  1.5369530289142391e-01  1.6825135900103938e-01  1.8124236091424739e-01  1.9274995157409627e-01  2.0281030923716584e-01  2.1149596619572350e-01  2.1895143041876103e-01  2.2532263139989789e-01  2.3069726964722462e-01  2.3522365751961385e-01  2.3903685796130777e-01  2.4223030909341056e-01  2.4490128104775066e-01  2.4712051400714927e-01  2.4896908269151649e-01  2.5049762067827047e-01  2.5176147161884238e-01  2.5278906832375991e-01  2.5364022332114960e-01  2.5434019535850561e-01  2.5490107916698662e-01  2.5536124766451052e-01  2.5572872468056107e-01  2.5602468426248293e-01  2.5625741445916572e-01  2.5644200334251510e-01  2.5658618813916217e-01  2.5669830159163953e-01  2.5678505966985565e-01  2.5685187221548111e-01  2.5690354189422160e-01  2.5694378656532718e-01  2.5697475317962709e-01  2.5699843737841394e-01  2.5701683609045939e-01  2.5703076921359896e-01  2.5704125708450726e-01  2.5704902999889279e-01  2.5705467019525652e-01  2.5705858784507507e-01  2.5706115886831082e-01  2.5706309880543282e-01  2.0244222877612223e-04  4.2060738311904329e-02  1.6487252579634351e-01  2.3013482375016248e-01  2.4997384018577171e-01  2.5531749018593691e-01  1.8022780860129010e-04  4.1621740912081880e-02  3.2272348888031897e-02  1.5035860172401677e-01  1.6603961286117319e-01  2.3326256558711825e-01  2.2679116018402981e-01  2.5663970298225597e-01  2.4953778042594671e-01  2.5185437738839228e-01  2.5570469463650558e-01  2.5519196928732218e-01  2.5696298367205050e-01  2.5667852749213743e-01  2.5668265177885380e-01  1.3986588001404922e-05  2.5694718517065679e-01  2.5695001271582835e-01  2.5703778312359599e-01  1.9387770731145795e-01  1.0731262451982167e-01  2.8930414282033806e-03  8.8774792298123576e-07  3.9308818009736969e-03  1.8744345660298006e-01  2.4346590602247439e-01  9.2274783549682216e-02  2.3709101821511361e-01  2.0330173830184201e-01  7.4956394629103376e-02  1.8728462453174374e-01  2.0597761603780179e-03  7.3667424720644942e-02  2.0828876005739958e-03  2.2364620155561157e-06  2.5415556450584176e-01  2.5238878597645403e-01  4.3289257263000973e-07  2.5703791991385222e-01  2.4127342391228743e-01  2.5606197444541057e-01  2.5394479172582457e-01  2.3894299431875443e-01  2.5251813592455158e-01  2.5703189272827959e-01  2.5633039763813753e-01  2.5618914691939204e-01  2.8393537192321287e-02  2.5599890215307858e-01  6.5693752036275013e-08  2.5680607708821468e-01  2.5705666448228853e-01  2.5488648821296706e-01  3.4105905795187047e-02  2.5073325439293703e-01  2.4689146059661812e-01  1.5811287097797036e-01  1.6373459399506270e-03  2.3020369101651914e-01  1.3583440758059934e-01  2.3672318399381505e-02  2.1833122487823592e-01  2.5684414542855916e-01  2.5685066518507593e-01  1.3896005097262897e-07  2.5679627371038377e-01  2.2248284664445835e-05  2.5705460345017178e-01  2.4875316965696975e-01  1.1784710660632820e-07  9.4209846454646640e-02  1.2634703399001581e-05  2.1962652775334460e-01  2.0009713051811018e-01  4.6142133355075972e-03  1.6737996982102158e-02  2.1601159066421624e-01  2.4168473458584866e-01  1.2815590443217198e-01  2.5313103578302071e-01  2.4659086820777318e-01  3.5645309930349922e-08  3.2478783165109103e-04  2.4461858038617240e-01  7.0722737416779131e-03  7.6007143654427579e-05  3.6420831353769172e-05  2.5542012851667523e-01  9.2423867687608616e-02  2.5460784262176889e-01  2.0924099873178967e-01  2.5701804704529146e-01  2.5667354730814496e-01  2.5608335983870734e-01  6.3489472402338088e-05  2.5662573288367196e-01  2.5699808131490676e-01  5.6657880110256610e-02  2.5701133084664946e-01  2.5705323174665679e-01  2.5606005255543651e-01  2.0065639306732197e-01  2.6045013333046599e-08  2.5699353576686834e-01  1.4693829668230440e-01  2.4212034210124600e-01  8.0771689836499294e-02  5.7263586354941117e-04  2.5646464499082128e-01  6.9817557578697398e-02  8.0656760402011713e-03  1.6426158576176998e-02  1.8971679592928015e-01  2.3390551952494935e-06  2.4019282815774187e-01  5.3120943340408157e-02  2.3175506882141797e-01  1.7120437405231764e-01  2.5645508620576152e-01  2.6757197931455020e-03  1.1152465421089816e-02  2.5691875162037464e-01  2.3327434328158819e-01  2.5694524133626806e-01  1.3282716487957871e-01  2.4469331455799914e-01  1.7350308101089933e-04  4.5499015075767396e-03  5.5153752148102182e-06  2.7722465532779430e-08  2.3553404896651250e-01  2.5408111751627710e-01  2.5683338687756574e-01  2.2055288357032893e-01  2.5507526464307900e-01  2.5265162008163816e-01  2.4820991459780523e-01  2.5347192735993529e-01  2.5098162879738145e-01  1.2178309434895182e-05  1.5067424664740670e-02  5.7929181909145172e-02  5.4734034501718416e-08  1.1143521486890033e-01  2.4395967571205660e-01  9.2328415071042252e-03  2.0935077226648616e-01  1.1571661307024664e-01  1.2969295233242202e-02  2.5151265519949484e-01  2.1207539612991244e-01  5.6858510204531486e-08  2.4636360220809550e-01  9.1009275088620389e-02  2.1277626942320607e-01  1.9670672607944334e-01  2.4030895385882670e-01  2.5706061234851307e-01  6.4588320557254608e-09  2.5406203577274655e-01  7.0145444800650300e-04  2.5606218239226874e-01  1.2417852512711652e-01  1.4975352922125263e-08  2.5143824219515781e-01  2.5581661471383438e-01  1.0678291663749470e-03  8.9974821342364572e-09  1.7813473609426644e-01  2.3400133545491871e-04  2.5692240577758907e-01  1.8119129625931904e-01  2.5621788983641186e-01  8.8721067606306386e-07  2.4650079065394731e-01  1.3677542186913830e-01  6.2075778201476313e-02  2.5343900738136171e-01  2.7916763862091698e-04  2.5468363096439023e-01  3.6029952372867130e-02  2.5198884988790660e-01  2.1610012709710130e-01  1.9896216352231075e-01  1.7048268229607599e-01  1.8530634868958309e-01  1.5267390196788189e-01  2.5399749468705124e-01  1.1760286456658789e-05  1.5065359683099525e-01  2.5692933553398928e-01  2.5706037826510625e-01  2.5501258416603767e-01  2.4901904352757781e-01  2.4935113391522667e-01  2.3111208152717472e-01  2.3644527675293442e-01  2.5199577004826235e-01  2.5704944786911660e-01  7.4209659248885082e-06  4.4241371623192992e-02  2.2557436473371209e-01  2.5702961256588469e-01  2.5704495091250923e-01  1.3234723482593219e-01  3.1887541688487266e-02  2.5685773598664641e-01  2.5643785674204866e-01  2.5631345234108244e-01  2.4922276420270734e-01  2.5404116927380033e-01  2.5704517825954870e-01  2.5549601501138935e-01  2.5699929077150430e-01  2.5493500489887272e-01  2.5442249087321267e-01  1.2165742552149112e-08  2.5556439878578924e-01  2.2761083056487982e-01  2.5700488679213573e-01  2.3329041175242421e-01  5.4565604974087684e-09  1.0924543068459421e-01  2.5635878887062707e-01  2.5597390165248790e-01  1.4638129520029708e-06  2.5686397394192595e-01  2.2512735784444676e-01  1.8267289676112422e-01  2.5524373773139353e-01  2.6430617238936926e-02  1.3362817367771699e-04  3.0682318289918090e-02  2.5670072148168566e-01  2.5644317929210170e-01  1.8758822248437029e-04  2.5577840682225350e-01  2.5664358090883582e-01  2.5651667512394072e-01  1.2943782815353682e-06  1.5272366348517483e-01  2.5703943486255493e-01  2.5642546162688368e-01  5.5273464201691748e-02  2.5685405184977100e-01  1.6115902976342575e-03  2.5686219040888680e-01  2.2531216172589798e-09  1.4458961837059858e-02  1.0755303316211842e-03  2.3410571354684886e-01  1.2986680805652767e-02  2.4843931654218873e-01  7.3017016645078217e-02  9.1464229677517498e-03  5.1967604863596356e-03  5.8664922295896095e-05  5.9843605421940735e-07  2.5689967148010651e-01  2.5245474134050004e-02  8.1046452708643073e-03  2.5680890782533927e-01  6.6611665557467143e-09  1.6562206784559996e-02  2.0142686767705886e-01  2.5142799899308958e-05  2.5682549137752853e-01  2.5110754772878210e-03  2.5451114163684507e-01  1.4850984974755913e-01  2.5575111784042637e-01  2.2652032835037722e-01  8.9423579576907095e-03  2.5015533689193675e-01  2.4577443600134419e-01  1.2553967547803255e-01  2.5699567585224242e-01  2.5695366621156990e-01  1.2695464353656127e-01  2.1441001912643709e-01  8.3937555680531352e-10  1.3292250752431872e-01  1.7627602466670161e-01  2.4943596727500939e-09  2.3979171297703472e-01  1.0220535823243423e-01  3.9144570131148912e-05  1.7289270702927301e-03  5.5816329007309713e-02  2.5675812143806731e-01  9.4038539920867803e-02  2.5705900549578875e-01  2.5642789884507589e-01  2.1830171653300490e-01  2.5705055551952305e-01  1.6831522858590092e-01  2.5332330439733769e-01  2.5670758406730543e-01  2.4785112190541728e-01  2.5148929166065870e-01  2.3918332625599154e-01  2.5698962297543521e-01  1.0626183858767652e-01  2.3158276468893885e-01  2.5672726506984012e-01  2.4285540316547760e-01  2.5559325617031181e-01  2.0526130921143107e-01  1.6856534159831638e-06  5.8034218580723590e-08  4.4932993575502546e-02  1.9939231157286597e-01  1.1301481650357698e-01  8.0680830666701286e-04  9.5134546924931985e-10  3.2044722799526440e-04  1.5908956639887114e-04  6.7192569842935774e-07  7.1395682170434276e-07  1.7994355277486296e-01  1.5875932550433569e-05  2.5636365222627922e-01  2.4247193525889188e-01  2.2013100532425267e-01  8.6503237336449631e-10  3.3272451040778521e-02  2.5665083440242226e-01  4.0493269903601922e-09  2.5357797796053816e-01  2.5698120744945235e-01  1.7014743324207432e-04  1.6156121957126454e-01  3.0728350900684868e-03  1.6433564281933971e-01  1.2068799021035413e-02  6.8129586556361997e-04  9.9807317265055512e-02  6.3935390619106719e-02  4.0328917124104677e-04  1.6456775744733566e-08  2.1025488444033644e-01  2.5702236147651059e-01  2.5486143806687983e-01  2.5022931754640426e-01  2.2797920273648442e-01  4.5111917713008778e-02  2.2356713001561953e-03  5.4670473572074219e-02  9.5844273090943260e-07  9.2018163919646898e-05  2.5203946916966358e-01  3.1915785960816762e-02  2.5690439517855168e-01  5.8301386163820567e-09  1.7082545800696161e-01  2.2020948479657532e-01  2.4174292036342251e-01  2.5690174671790839e-01  2.5153317628591948e-01  2.4936163295170355e-01  1.9718564643983633e-01  2.3452038681759035e-01  1.9843223870837862e-03  2.4571628911466120e-01  2.5566231960228647e-01  2.1756269947539309e-09  1.5047063960118032e-01  2.2409551698255253e-01  3.1505698898952333e-05  9.3825738379364268e-02  2.5194767233318099e-01  2.5696700989818744e-01  2.4859088450672887e-01  4.2880865654648985e-02  2.0328080831478268e-01  2.5696588872926235e-01  8.6516119801930834e-04  2.4405208594997005e-01  2.5525408294987872e-01  7.3455929671483497e-02  2.3733527455099643e-01  2.5702670595834842e-01  2.5379752384047727e-01  2.2586314336900162e-01  1.8610969650868456e-01  2.3685726017300110e-01  2.5121670781816524e-01  2.2004306583118499e-02  8.4093939768210237e-09  2.5698180574714852e-01  2.4531276099247851e-01  2.1210468187187036e-03  2.5706250163041811e-01  2.5658930590128859e-01  2.1107882875618669e-01  1.8042212362072882e-01  2.3562939556318513e-01  2.5694712824795990e-01  1.5310976061717615e-01  2.5539736265267626e-01  6.6633316520806132e-03  1.0100197417967176e-01  8.1477190080866124e-02  2.5011091274558966e-01  2.5615375232270365e-01  2.5569737328981335e-01  7.1063060685596799e-02  2.5275209692811679e-01  2.4698070581493009e-01  2.4918110593608822e-01  2.5647545120024845e-01  2.5620594339158598e-01  2.5414754657503391e-01  6.9924897588773140e-07  4.5638725041804275e-03  2.5351469663561871e-01  2.5701410551330839e-01  2.5650221153176817e-01  2.5705115957255098e-01  2.5609165438802495e-01  2.5491541840136644e-01  2.5691905047767977e-01  2.4571845758451455e-01  2.5702701206067952e-01  2.5702792437349631e-01  2.5701606401540111e-01  2.5649571530640403e-01  1.1498653249851186e-02  2.7736746304316693e-02  2.5562755241878216e-01  3.1357566466362339e-07  2.8106890293814336e-02  2.5623531080976358e-01  2.5672257697915929e-01  2.5255609014700803e-01  2.5668592650031125e-01  2.5705878029769819e-01  1.2999301113300030e-01  2.5596511630518465e-01  1.3919927620745838e-05  2.1919934853641973e-01  2.5704476488671618e-01  1.8152896514689249e-05  5.8358632199799337e-02  2.3446385729611807e-01  1.5059926814566985e-01  4.0666830623648898e-07  8.9761404937973720e-06  2.0583905451179837e-01  4.8036302599303619e-09  2.5322285318166410e-01  7.1686166221738819e-03  2.5657815293531544e-01  2.5489386211956250e-01  2.5649995152820304e-01  4.8845681785255325e-06  2.3081774026686895e-06  5.6315748613872008e-07  2.5701527698476873e-01  2.0108619452908605e-01  1.5484864263549003e-02  1.1593681421253778e-05  9.4952098859192436e-08  3.9444963293206728e-03  2.4033334497699385e-01  2.5666760019426632e-01  2.0984644437150193e-10  2.6832881259692468e-05  2.5559313737658251e-01  9.2955201466969700e-02  2.5705311383837826e-01  5.9679821069587337e-03  2.5696156420032229e-01  1.8232256398760245e-04  1.2372290867711772e-01  2.5688034603878163e-01  2.1733265170625168e-01  1.6372235099166282e-03  1.1779412589142862e-10  1.4647849194531476e-01  2.5675239591252430e-01  9.3061472237859991e-03  3.5085150607188128e-10  2.4443882615414622e-01  1.8434873562994384e-09  2.5672599544547187e-01  2.1874862936503645e-01  2.1747915010569943e-01  2.1571874152956860e-02  1.7715966664448263e-07  1.9801416945175773e-02  2.4779753617428002e-01  1.0236770027287218e-01  2.5185583700103686e-01  2.4996889625438798e-01  2.0278307007959698e-01  2.4222651759180627e-01  2.5695834111050853e-01  1.2154277511622240e-06  1.3040382091021502e-01  4.5180350572780599e-06  2.2634252296997540e-01  1.3286896070887719e-01  2.2780542525882916e-01  1.8703040153396125e-09  2.4560539333303760e-01  2.5701348020878007e-01  1.7108310787924890e-02  4.3333318714678312e-02  1.3604775625956381e-07  1.0261449375161975e-02  2.5669281816898243e-01  2.5522908384703630e-01  2.5246794756083746e-01  4.8290700698594934e-04  2.5699328137478644e-01  2.5383979896025460e-01  2.2210680669181065e-01  2.5348734776915066e-01  1.9763644476501024e-01  1.5164982628101573e-02  2.5706269451832908e-01  2.4608766143327826e-01  8.4871773668111106e-02  1.9416692152814752e-01  2.4891188329205619e-01  2.3802144822390922e-01  6.5640724212591320e-05  1.1479201526085835e-01  4.1440737677607192e-04  1.3079121399253021e-01  2.5610286087429457e-01  2.5703668217851061e-01  2.5684078309505565e-01  2.0894445259131872e-01  3.2060903394504611e-05  6.8491624556549752e-02  2.4408826503594971e-01  2.5704847366975964e-01  1.5938864152533888e-01  1.6316112581377866e-05  2.5704041149037216e-01  2.5705719522084819e-01  6.7906746645640434e-02  1.4069512633905010e-01  2.1612002614272846e-01  2.5480918459283869e-01  2.2643459162343341e-01  2.5460487360192408e-01  2.5674950578851052e-01  8.0589815576309183e-10  2.4264232445472589e-01  1.4363535493134986e-06  1.9873365134733437e-01  1.8853758206352927e-01  5.0984088623163538e-02  2.5701166232859296e-01  2.3990627029547149e-01  3.1158516301558465e-08  9.7904887303999891e-02  2.4275019492441144e-01  2.5371607543541391e-01  2.3113019025385712e-01  1.6944136038554442e-01  9.7540023383863752e-05  2.4761097504330273e-01  1.2990687037585372e-01  5.5572707578317657e-03  2.5625645437080391e-01  6.7509840573212451e-02  2.5604120647451112e-01  2.2873925913711082e-01  7.3761721340643818e-08  2.1040798525875776e-01  1.8826522888929451e-01  2.5538154876571972e-01  5.7573395435677897e-04  6.5938541817286062e-02  9.1499301860888176e-06  5.0253219393971087e-10  7.1768666747297170e-03  2.4801129198916297e-01  2.3608785818722261e-01  1.8173382349472220e-01  2.5698637414430087e-01  2.5677293452875782e-01  1.9168455204203100e-01  8.0975966413459888e-02  2.5659098606267755e-01  2.3844400057499981e-01  1.6407287522532724e-03  2.3683530020074497e-01  1.7169227306125607e-04  2.5611163140418342e-01  2.5636553565835951e-01  2.2957853207968022e-02  2.5406922826885292e-01  1.7320615354050123e-01  1.8502099498840363e-01  6.3436030345438992e-05  2.5694700404254711e-01  1.9045700706846133e-01  8.9354687145152382e-05  2.7845930192690687e-04  2.5307205396500659e-01  4.9823147763242145e-08  5.1222906576002140e-02  1.2356049673643760e-01  2.5698850590375905e-01  2.5703928491214301e-01  2.5209333167544323e-01  2.5664666289125732e-01  6.3145971013418975e-04  7.2795800974819835e-04  2.5092704467142507e-01  8.2241600100356499e-02  1.5091414747642900e-02  2.5706048085672362e-01  2.5438128367878909e-01  2.3336769694761136e-01  2.4464137905013361e-01  2.5287682692456304e-01  2.5555626016974214e-01  5.3499539038473112e-02  2.5680360374620020e-01  2.5630338544123349e-01  2.4632538861843320e-01  1.1404062723272564e-01  2.3038429374704128e-01  2.5705625376147684e-01  2.0858254197061393e-01  2.4156589210465487e-01  2.5690756158556904e-01  2.5674963142307067e-01  2.5697009037183471e-01  2.5303876733597697e-01  2.3989147171209096e-01  2.5006575542407511e-01  2.7943743494748249e-02  2.5576319380737988e-01  2.5500250155357485e-01  7.7924659845842695e-04  1.1540134688601587e-07  1.8103839601568356e-01  2.5428128740964584e-01  1.7777811999338794e-01  2.1279273407326282e-01  2.5588714621077935e-01  2.5687161929810998e-01  2.5584621136123320e-01  2.5097273601713915e-01  1.3169764761053000e-07  2.4351397536388372e-01  1.6605494912543792e-01  2.5274474776441791e-01  1.9398905684896137e-01  4.3377836744796054e-02  9.2789876985950896e-04  1.6504978626028174e-01  2.5603967366327973e-01  7.6125032463400022e-10  9.1761067688941227e-04  1.2676181339689627e-01  2.5683882955152615e-01  8.8172859655540790e-08  2.5103089586083072e-01  2